# vtk DataFile Version 3.0
d-2__ created by libgimli-
ASCII
DATASET UNSTRUCTURED_GRID
POINTS 7003 double
-5.002559344975	169.17	0
-5.002559344975	89.17	0
480.00255934497	89.17	0
480.00255934497	157.76	0
0	169.17	0
0.25	169.178	0
2.25	169.242	0
2.5	169.25	0
2.75	169.266	0
4.75	169.394	0
5	169.41	0
5.25	169.425	0
7.25	169.545	0
7.5	169.56	0
7.75	169.566	0
9.75	169.614	0
10	169.62	0
10.25	169.637	0
12.25	169.773	0
12.5	169.79	0
12.75	169.805	0
14.75	169.925	0
15	169.94	0
15.25	169.95	0
17.25	170.03	0
17.5	170.04	0
17.75	170.047	0
19.75	170.103	0
20	170.11	0
20.25	170.117	0
22.25	170.173	0
22.5	170.18	0
22.75	170.192	0
24.75	170.288	0
25	170.3	0
25.25	170.303	0
27.25	170.327	0
27.5	170.33	0
27.75	170.331	0
29.75	170.339	0
30	170.34	0
30.25	170.337	0
32.25	170.313	0
32.5	170.31	0
32.75	170.303	0
34.75	170.247	0
35	170.24	0
35.25	170.227	0
37.25	170.123	0
37.5	170.11	0
37.75	170.093	0
39.75	169.957	0
40	169.94	0
40.25	169.905	0
42.25	169.625	0
42.5	169.59	0
42.75	169.557	0
44.75	169.293	0
45	169.26	0
45.25	169.226	0
47.25	168.954	0
47.5	168.92	0
47.75	168.887	0
49.75	168.623	0
50	168.59	0
50.25	168.549	0
52.25	168.221	0
52.5	168.18	0
52.75	168.141	0
54.75	167.829	0
55	167.79	0
55.25	167.769	0
57.25	167.601	0
57.5	167.58	0
57.75	167.565	0
59.75	167.445	0
60	167.43	0
60.25	167.373	0
62.25	166.917	0
62.5	166.86	0
62.75	166.8	0
64.75	166.32	0
65	166.26	0
65.25	166.19	0
67.25	165.63	0
67.5	165.56	0
67.75	165.496	0
69.75	164.984	0
70	164.92	0
70.25	164.862	0
72.25	164.398	0
72.5	164.34	0
72.75	164.269	0
74.75	163.701	0
75	163.63	0
75.25	163.568	0
77.25	163.072	0
77.5	163.01	0
77.75	162.928	0
79.75	162.272	0
80	162.19	0
80.25	162.098	0
82.25	161.362	0
82.5	161.27	0
82.75	161.183	0
84.75	160.487	0
85	160.4	0
85.25	160.309	0
87.25	159.581	0
87.5	159.49	0
87.75	159.439	0
89.75	159.031	0
90	158.98	0
90.25	158.974	0
92.25	158.926	0
92.5	158.92	0
92.75	158.893	0
94.75	158.677	0
95	158.65	0
95.25	158.725	0
97.25	159.325	0
97.5	159.4	0
97.75	159.415	0
99.75	159.535	0
100	159.55	0
100.25	159.574	0
102.25	159.766	0
102.5	159.79	0
102.75	159.835	0
104.75	160.195	0
105	160.24	0
105.25	160.297	0
107.25	160.753	0
107.5	160.81	0
107.75	160.885	0
109.75	161.485	0
110	161.56	0
110.25	161.63	0
112.25	162.19	0
112.5	162.26	0
112.75	162.299	0
114.75	162.611	0
115	162.65	0
115.25	162.698	0
117.25	163.082	0
117.5	163.13	0
117.75	163.188	0
119.75	163.652	0
120	163.71	0
120.25	163.744	0
122.25	164.016	0
122.5	164.05	0
122.75	164.068	0
124.75	164.212	0
125	164.23	0
125.25	164.274	0
127.25	164.626	0
127.5	164.67	0
127.75	164.722	0
129.75	165.138	0
130	165.19	0
130.25	165.216	0
132.25	165.424	0
132.5	165.45	0
132.75	165.446	0
134.75	165.414	0
135	165.41	0
135.25	165.414	0
137.25	165.446	0
137.5	165.45	0
137.75	165.46	0
139.75	165.54	0
140	165.55	0
140.25	165.555	0
142.25	165.595	0
142.5	165.6	0
142.75	165.602	0
144.75	165.618	0
145	165.62	0
145.25	165.625	0
147.25	165.665	0
147.5	165.67	0
147.75	165.677	0
149.75	165.733	0
150	165.74	0
150.25	165.747	0
152.25	165.803	0
152.5	165.81	0
152.75	165.829	0
154.75	165.981	0
155	166	0
155.25	166.023	0
157.25	166.207	0
157.5	166.23	0
157.75	166.238	0
159.75	166.302	0
160	166.31	0
160.25	166.331	0
162.25	166.499	0
162.5	166.52	0
162.75	166.539	0
164.75	166.691	0
165	166.71	0
165.25	166.712	0
167.25	166.728	0
167.5	166.73	0
167.75	166.751	0
169.75	166.919	0
170	166.94	0
170.25	166.947	0
172.25	167.003	0
172.5	167.01	0
172.75	167.028	0
174.75	167.172	0
175	167.19	0
175.25	167.21	0
177.25	167.37	0
177.5	167.39	0
177.75	167.403	0
179.75	167.507	0
180	167.52	0
180.25	167.537	0
182.25	167.673	0
182.5	167.69	0
182.75	167.696	0
184.75	167.744	0
185	167.75	0
185.25	167.772	0
187.25	167.948	0
187.5	167.97	0
187.75	167.987	0
189.75	168.123	0
190	168.14	0
190.25	168.157	0
192.25	168.293	0
192.5	168.31	0
192.75	168.334	0
194.75	168.526	0
195	168.55	0
195.25	168.553	0
197.25	168.577	0
197.5	168.58	0
197.75	168.581	0
199.75	168.589	0
200	168.59	0
200.25	168.585	0
202.25	168.545	0
202.5	168.54	0
202.75	168.534	0
204.75	168.486	0
205	168.48	0
205.25	168.466	0
207.25	168.354	0
207.5	168.34	0
207.75	168.321	0
209.75	168.169	0
210	168.15	0
210.25	168.124	0
212.25	167.916	0
212.5	167.89	0
212.75	167.861	0
214.75	167.629	0
215	167.6	0
215.25	167.542	0
217.25	167.078	0
217.5	167.02	0
217.75	166.915	0
219.75	166.075	0
220	165.97	0
220.25	165.927	0
222.25	165.583	0
222.5	165.54	0
222.75	165.517	0
224.75	165.333	0
225	165.31	0
225.25	165.26	0
227.25	164.86	0
227.5	164.81	0
227.75	164.729	0
229.75	164.081	0
230	164	0
230.25	163.898	0
232.25	163.082	0
232.5	162.98	0
232.75	162.883	0
234.75	162.107	0
235	162.01	0
235.25	161.907	0
237.25	161.083	0
237.5	160.98	0
237.75	160.9	0
239.75	160.26	0
240	160.18	0
240.25	160.084	0
242.25	159.316	0
242.5	159.22	0
242.75	159.135	0
244.75	158.455	0
245	158.37	0
245.25	158.248	0
247.25	157.272	0
247.5	157.15	0
247.75	157.014	0
249.75	155.926	0
250	155.79	0
250.25	155.654	0
252.25	154.566	0
252.5	154.43	0
252.75	154.32	0
254.75	153.44	0
255	153.33	0
255.25	153.229	0
257.25	152.421	0
257.5	152.32	0
257.75	152.275	0
259.75	151.915	0
260	151.87	0
260.25	151.839	0
262.25	151.591	0
262.5	151.56	0
262.75	151.502	0
264.75	151.038	0
265	150.98	0
265.25	150.808	0
267.25	149.432	0
267.5	149.26	0
267.75	149.404	0
269.75	150.556	0
270	150.7	0
270.25	150.751	0
272.25	151.159	0
272.5	151.21	0
272.75	151.236	0
274.75	151.444	0
275	151.47	0
275.25	151.504	0
277.25	151.776	0
277.5	151.81	0
277.75	151.857	0
279.75	152.233	0
280	152.28	0
280.25	152.323	0
282.25	152.667	0
282.5	152.71	0
282.75	152.749	0
284.75	153.061	0
285	153.1	0
285.25	153.14	0
287.25	153.46	0
287.5	153.5	0
287.75	153.525	0
289.75	153.725	0
290	153.75	0
290.25	153.796	0
292.25	154.164	0
292.5	154.21	0
292.75	154.274	0
294.75	154.786	0
295	154.85	0
295.25	154.906	0
297.25	155.354	0
297.5	155.41	0
297.75	155.459	0
299.75	155.851	0
300	155.9	0
300.25	155.948	0
302.25	156.332	0
302.5	156.38	0
302.75	156.413	0
304.75	156.677	0
305	156.71	0
305.25	156.736	0
307.25	156.944	0
307.5	156.97	0
307.75	156.99	0
309.75	157.15	0
310	157.17	0
310.25	157.188	0
312.25	157.332	0
312.5	157.35	0
312.75	157.357	0
314.75	157.413	0
315	157.42	0
315.25	157.429	0
317.25	157.501	0
317.5	157.51	0
317.75	157.522	0
319.75	157.618	0
320	157.63	0
320.25	157.648	0
322.25	157.792	0
322.5	157.81	0
322.75	157.834	0
324.75	158.026	0
325	158.05	0
325.25	158.046	0
327.25	158.014	0
327.5	158.01	0
327.75	158.002	0
329.75	157.938	0
330	157.93	0
330.25	157.93	0
332.25	157.93	0
332.5	157.93	0
332.75	157.926	0
334.75	157.894	0
335	157.89	0
335.25	157.868	0
337.25	157.692	0
337.5	157.67	0
337.75	157.679	0
339.75	157.751	0
340	157.76	0
340.25	157.757	0
342.25	157.733	0
342.5	157.73	0
342.75	157.723	0
344.75	157.667	0
345	157.66	0
345.25	157.666	0
347.25	157.714	0
347.5	157.72	0
347.75	157.754	0
349.75	158.026	0
350	158.06	0
350.25	158.077	0
352.25	158.213	0
352.5	158.23	0
352.75	158.25	0
354.75	158.41	0
355	158.43	0
355.25	158.44	0
357.25	158.52	0
357.5	158.53	0
357.75	158.541	0
359.75	158.629	0
360	158.64	0
360.25	158.65	0
362.25	158.73	0
362.5	158.74	0
362.75	158.762	0
364.75	158.938	0
365	158.96	0
365.25	158.976	0
367.25	159.104	0
367.5	159.12	0
367.75	159.14	0
369.75	159.3	0
370	159.32	0
370.25	159.334	0
372.25	159.446	0
372.5	159.46	0
372.75	159.482	0
374.75	159.658	0
375	159.68	0
375.25	159.702	0
377.25	159.878	0
377.5	159.9	0
377.75	159.892	0
379.75	159.828	0
380	159.82	0
380.25	159.837	0
382.25	159.973	0
382.5	159.99	0
382.75	160.06	0
384.75	160.62	0
385	160.69	0
385.25	160.735	0
387.25	161.095	0
387.5	161.14	0
387.75	161.177	0
389.75	161.473	0
390	161.51	0
390.25	161.544	0
392.25	161.816	0
392.5	161.85	0
392.75	161.884	0
394.75	162.156	0
395	162.19	0
395.25	162.222	0
397.25	162.478	0
397.5	162.51	0
397.75	162.539	0
399.75	162.771	0
400	162.8	0
400.25	162.823	0
402.25	163.007	0
402.5	163.03	0
402.75	163.048	0
404.75	163.192	0
405	163.21	0
405.25	163.226	0
407.25	163.354	0
407.5	163.37	0
407.75	163.382	0
409.75	163.478	0
410	163.49	0
410.25	163.504	0
412.25	163.616	0
412.5	163.63	0
412.75	163.629	0
414.75	163.621	0
415	163.62	0
415.25	163.616	0
417.25	163.584	0
417.5	163.58	0
417.75	163.571	0
419.75	163.499	0
420	163.49	0
420.25	163.489	0
422.25	163.481	0
422.5	163.48	0
422.75	163.479	0
424.75	163.471	0
425	163.47	0
425.25	163.468	0
427.25	163.452	0
427.5	163.45	0
427.75	163.437	0
429.75	163.333	0
430	163.32	0
430.25	163.302	0
432.25	163.158	0
432.5	163.14	0
432.75	163.115	0
434.75	162.915	0
435	162.89	0
435.25	162.86	0
437.25	162.62	0
437.5	162.59	0
437.75	162.573	0
439.75	162.437	0
440	162.42	0
440.25	162.392	0
442.25	162.168	0
442.5	162.14	0
442.75	162.108	0
444.75	161.852	0
445	161.82	0
445.25	161.795	0
447.25	161.595	0
447.5	161.57	0
447.75	161.539	0
449.75	161.291	0
450	161.26	0
450.25	161.234	0
452.25	161.026	0
452.5	161	0
452.75	160.974	0
454.75	160.766	0
455	160.74	0
455.25	160.71	0
457.25	160.47	0
457.5	160.44	0
457.75	160.404	0
459.75	160.116	0
460	160.08	0
460.25	160.049	0
462.25	159.801	0
462.5	159.77	0
462.75	159.739	0
464.75	159.491	0
465	159.46	0
465.25	159.416	0
467.25	159.064	0
467.5	159.02	0
467.75	158.976	0
469.75	158.624	0
470	158.58	0
470.25	158.544	0
472.25	158.256	0
472.5	158.22	0
472.75	158.174	0
474.75	157.806	0
475	157.76	0
237.5	89.17	0
358.75127967249	89.17	0
116.24872032751	89.17	0
90.078965321527	158.36131114046	0
92.422102385597	158.42123331725	0
82.563637306727	160.74241236212	0
95.319136206969	158.12789756833	0
97.714284334254	158.84638933095	0
102.73430394569	159.38333085243	0
107.78628866987	160.44510689192	0
72.21492361125	163.80303073944	0
77.259931521544	162.60230217527	0
64.643134699443	165.7638272544	0
79.672378401239	161.78944255056	0
112.70303162021	161.80645201139	0
120.28187414488	163.27401182791	0
122.69801446749	163.59504564873	0
127.38134052603	164.1704464279	0
132.64143505512	165.02070841057	0
130.26772300717	164.77264949934	0
232.12327656339	162.60858582892	0
229.69130898139	163.61985876225	0
224.80637504509	164.84664006702	0
227.24748415721	164.356288855	0
137.67106890757	164.98519231958	0
167.39244016194	166.24184580048	0
[...]
CELL_DATA 12881
SCALARS P-wave_Velocity double 1
LOOKUP_TABLE default
420.95049875022 472.51589653711 748.93643787713 467.91086954432 362.85407124184 469.6603429646 560.32921485267 428.18021153075 480.54740337577 465.5216029215 433.36896848866 451.0707362055 467.25175206241 969.61543264921 845.76742765481 395.00387348917 790.50727932889 446.19330225062 1124.9178131193 399.68399724691 490.24206655035 445.99780177993 942.03179700347 404.47657133325 403.16608136643 498.14628313229 897.23968975018 429.22514856505 442.39317375305 603.80371493082 462.61753341923 430.09556536868 669.47269496094 459.05066055777 857.58133812247 421.10245049734 462.74303038581 376.61708401327 511.9020777257 430.83147036922 597.96545503469 433.7410025334 408.05868328793 487.8647925069 420.74883640496 603.1220955122 412.92130050373 843.49768913893 857.55750727244 405.61775716496 774.24291963605 487.47197321131 464.03863633731 834.1265704387 564.00600126757 563.05049461887 470.05652113166 447.36317645803 665.76106063119 910.43445925517 574.43952133007 484.90964607479 551.32901286713 836.70559027153 869.39845960345 346.34847885973 440.88350393772 418.67800702184 732.00746913585 466.13801254667 419.61342695523 459.03889854908 472.09536959293 433.21785473029 670.64129074728 470.53403303338 567.33810774209 477.42442430335 458.91905075056 909.89397906642 470.98197601629 456.9745511336 457.15575887927 749.17685383873 351.06517966095 357.34059285666 638.50076550094 366.55592275465 315.35886091845 366.68534049365 427.54671542798 500.95405829233 352.10279443231 350.647812001 590.54363769815 475.08929508745 491.37966484343 453.81861820595 358.57244780002 554.17032610325 379.53844771492 362.53391837413 389.45120046044 522.32994546526 428.58472179863 436.89293070961 603.4620293993 469.23621921206 739.99291867654 708.5697618499 535.22988838869 707.42113570171 403.74570939232 771.93825510407 723.76792127135 679.12224870757 739.13962967354 540.40778862167 459.66693289761 533.26628516725 730.46165673958 454.30709491036 527.4150033355 560.30131702585 573.78163415915 332.95087187787 656.0919716459 325.4838792205 332.67411922553 478.81584590937 340.31936580021 457.38672672176 445.21365843115 487.57231617363 388.64373990315 400.42753562997 470.10102061471 771.50278204883 572.92354483036 374.80012709596 391.72626859193 342.43458124598 596.43812326844 341.07799412129 350.0551897945 866.58739397439 789.43865962602 303.19981461088 265.45553136536 272.10997617757 714.90131363186 683.1787000765 320.94637634948 731.34488848755 369.13736802945 468.11138765834 783.88967116551 221.54873480043 1006.5196921249 315.17554608432 215.30270237847 701.43148185922 984.57848994838 318.67341274647 393.98370963113 508.34121448596 272.08296267302 866.67212695021 327.04467453431 219.92332119192 355.61291115418 1031.7537342577 316.44722918035 755.16672267095 619.67278754439 758.18383011036 427.30979166266 835.14466039895 244.29760410542 795.3340024407 874.23136726281 528.45578468882 591.54594702702 538.05416103437 403.12144075548 398.5421749908 394.92042903457 584.30485519907 604.15577453906 498.98886473611 242.27328099933 775.70274876882 408.1633805043 757.79231235794 625.95667431431 425.46070848118 420.73437607804 898.74364530445 717.90227250099 798.56669782067 899.53792160366 403.24761586714 477.3793900697 623.80874645925 929.00199968337 584.96254306704 902.40243930188 429.75718407514 692.71183483614 850.73420772216 713.24023728321 450.84186703228 871.82459721701 462.84556602417 435.81163872588 892.2890803051 644.83617419102 482.58295746984 897.92225666513 447.40581150114 479.77901135464 643.42074382061 458.24233070993 516.63343481479 336.71430322905 793.51053164775 714.56913813468 511.73212397645 875.58083256219 625.07666862576 512.57777232084 489.08725067612 433.93382322185 644.9437773056 361.08022948092 771.5948851969 730.2788859468 810.2486792864 750.83126408165 704.98861506519 519.05539261449 948.51091022435 505.62557122823 796.06840671149 472.21238881705 747.89173676636 535.89355955048 857.79273432682 732.47586252837 681.09905647641 437.45643620783 700.07041274083 377.49352709635 530.85258911677 599.38921185627 452.22990494819 409.35736391514 522.98068014895 690.78429701535 387.40166963895 706.26200180308 794.33558589479 558.88979073729 778.83756713009 736.20367847741 951.10700283032 862.95817711163 749.77445956773 644.62047009356 718.50896746381 910.2255655482 911.86525835308 711.26816119273 606.74824963966 747.67324206662 333.98761706637 712.57293455953 489.38657881997 923.71578333702 864.30890459958 744.74105159761 847.77227874533 776.06392220619 848.13813133194 383.67517765408 754.05171847898 635.2559504738 474.60602576386 698.104561992 605.79095175085 330.88089059338 709.68717268625 698.15365108771 700.11468940947 431.12134816563 529.69611146848 711.2320585084 437.13676341065 729.39939177537 676.41065529469 731.58508176939 740.38934975881 721.51808126466 694.13113138338 717.62107378551 638.52703436207 893.19261017855 504.40673502193 500.8228661762 525.87583539832 569.62379155646 426.20831677047 859.39593060974 742.76464812007 777.53603217481 465.66161862012 741.20328504751 739.2472783023 461.1820705813 782.06886666379 682.81512841917 446.52484982724 724.83602753276 458.29267505247 711.74644278155 442.18601792405 474.34869787786 472.14992990546 657.52035872204 466.81218550519 855.00848368964 464.21809157268 478.02797855199 442.2446408155 1006.2629407263 494.0771104132 931.97196571242 486.6612203467 804.6188867751 491.06252138047 939.06474188708 450.86644073621 481.95601350007 457.54938356619 800.96425382205 694.88559380974 862.62184249314 450.86275482444 478.48031018223 812.5930599628 781.44808198998 484.52250435378 797.85410185426 602.78080239746 506.65767353574 760.9707525861 930.66939838814 702.2115496477 824.18528115457 421.67945710683 592.57103410883 748.41629715073 814.18099157312 742.11170649715 853.20326015373 833.20893234139 755.77607410214 650.52717412884 710.11719765874 687.79382242954 551.26885542638 829.5777870142 705.04772112716 817.8244624944 888.06493818737 377.50076746912 660.19267251886 951.8015360928 1011.3092729179 992.15153631918 738.59461484404 639.42129147691 930.58929932909 1110.8998971874 873.14282672205 703.88968817995 890.31369586542 753.61764413445 372.68985614429 677.1567681467 539.00546030077 628.53354596835 376.64665472423 613.70187842562 336.74687475599 528.03994794995 525.79719391959 547.3426559172 493.78293915379 431.20120987002 554.28195575535 619.59972982038 497.15360507332 383.47581374175 711.17540180924 985.4661370016 676.74693111088 972.74100489794 1009.2522545602 792.89645812767 483.84352934206 715.22706473682 735.99419707977 862.87898263993 639.32678795778 797.91585518602 289.45380148028 839.95015186111 836.68775943734 769.63071193877 568.12738854543 990.57325778103 518.34727662188 697.54409102713 765.64051693469 736.09099995643 457.66641959041 663.65428327951 445.7961553218 381.19218074414 994.63351585589 398.49489900921 763.04594367434 697.39995121745 906.48029584456 703.34355826756 772.52425910491 841.78810280376 692.40481695022 793.87488037142 655.64402129705 369.69720882065 605.9230069845 444.78173428452 1067.8141295393 395.1007955798 493.66522494855 423.39401331185 586.12819868582 878.27027179136 839.78139138744 787.91071485153 873.32001688836 981.604320657 800.42949305955 623.60209671218 874.56225740546 1142.9023387807 857.39909065245 397.54733885607 1092.6181158504 945.37789507559 571.40244070286 1055.3943278989 1036.7496705598 449.07641034091 267.79672830469 717.23837550976 1051.8204189305 982.84903511257 826.39079485401 767.80641193351 662.28140793569 962.85292114124 862.56176585982 820.73872565129 921.65365346603 1109.7703947386 358.53934518249 1000.5833679555 1138.5442459978 582.7299867782 448.6202909218 856.03666354112 1029.4182941981 926.23933585592 916.11938817493 552.71868823323 581.07242966858 1127.9157797468 533.10650380265 728.77986105591 505.13857335416 490.04686959837 719.23530288929 432.56156004492 871.82911981165 1005.9566309908 790.46709537888 524.46740438063 908.18579925242 541.71634398077 554.12089255255 915.8400176501 409.61266941688 899.80223931739 923.24564233238 586.12502147207 910.24113897791 681.88938771911 912.67505884863 779.5823729361 809.19956183215 818.47789430526 802.36759885851 853.67352415951 874.12951731048 389.1904229631 437.17793238463 870.23900608999 833.91882335227 853.89292182266 681.8480288036 336.16465301245 816.55373153906 514.1555366505 900.12482532921 888.45483365966 914.44279172528 647.08444124267 615.84715333146 788.99936436341 584.24486421688 797.47022912887 446.11413142826 552.55260999959 557.61717344113 846.086752342 433.45507386288 787.4295191419 796.2363894163 488.47726094023 458.85200563831 761.56669644006 666.83432033321 372.03198861759 712.9090008114 810.41789494089 663.09425749413 840.97506451979 790.92095922586 814.99004216808 575.27059005139 883.971461654 715.01414800052 869.16217647831 929.19104149516 637.66461399471 528.76289222614 841.71519735443 859.25916102019 822.86743600365 313.64155120611 887.39104418718 922.46260742439 698.03690444938 347.090244554 983.61731972215 386.03661704688 851.40013337405 475.60289988549 728.69225945817 430.93441401255 691.05101683405 444.48794290598 695.1311810967 498.59942585371 687.72894876245 716.60776104416 525.65376893103 263.07126138751 266.85039424025 426.19814990543 421.02782744606 484.21232248089 466.21666297797 739.01971815178 455.1332605931 434.21268980517 760.65875608379 632.04961291051 675.22982127419 468.08230779816 823.85887929692 476.67929873436 758.51310452424 453.41149566382 745.35231630209 845.87547557973 497.67240560718 651.70587237899 817.50576753482 790.48531475684 457.60895640574 479.52929829262 777.18531985394 464.31602183552 378.40643120435 380.90358116994 273.07708734173 402.51023422168 348.08547780032 374.77501706986 496.49732781426 321.47327924631 497.55617745502 289.21856837622 415.65124907824 502.33174163557 351.38847938818 411.92852617728 370.86538040178 253.80894343765 328.09469129133 777.64607112637 330.69637437452 451.89976191118 737.30635249378 768.05960811523 483.47270293629 628.90502660716 338.41378226531 466.65971216547 733.49700629071 472.2001862515 817.06241687516 500.09317426253 459.26715091745 551.79630535476 486.6845623415 492.68548412504 683.52233809972 656.64363123471 763.70061203915 641.16232292899 567.8503546164 462.52839501049 540.10471328172 476.94902215195 638.94834437672 550.8967792376 548.98961734095 752.93742187464 450.00142586406 554.86536942289 462.37947274838 629.78307427422 711.18620600309 609.81644260031 537.22817482559 694.09118944606 529.29230153652 802.73356237737 531.60118730496 399.06983820362 574.12335059433 567.76916440373 483.02471704933 382.69485518856 359.56256678183 308.14668070204 539.9939326912 570.19129472739 469.09014710919 790.15104570845 501.31475191993 765.43043382838 558.0662417404 428.19544974394 482.42372648046 464.27317887238 461.02177223479 734.1379160826 480.35622570703 492.61575081711 485.82536855976 615.66253329998 878.97881867716 494.97499068597 929.16152413099 484.71768515904 788.84838174429 725.26218279094 485.78313186212 979.66758142542 484.33330528737 489.13939126415 552.83379904091 887.47695257005 495.69237754032 399.05593300902 406.59676854997 826.39451393615 499.26642017171 466.37500822989 531.56246359624 467.23818530547 751.22698711411 476.66368837342 865.38762907036 548.55325269789 768.03372731721 553.35449846629 638.99791582844 691.95497836916 387.26525953548 437.22103179639 403.52442717917 408.12852044753 507.68582856062 395.08295395066 374.8430572692 382.70141247252 380.29828548546 219.9738605428 213.54283310736 381.88459622583 486.35924734039 489.19571204769 555.81088492244 379.97276350193 380.28290274523 441.86394060926 375.92347447513 372.12894187791 638.09270352099 762.45566730084 389.15004042159 424.26886022858 393.82603063637 416.45039619751 312.45371992799 406.20672067492 582.82568544389 383.07053370795 370.08476181661 400.78239520673 696.69740452111 474.89026329339 433.56818906873 423.07027689125 496.89563464212 429.95601373126 413.56278974663 671.86768447647 527.13592253403 546.20011093489 620.82776624837 522.4699539276 842.66171649605 628.92486413505 692.99116222646 413.94888439501 418.13366248851 580.48798562168 548.11174354953 424.22124974586 737.31594756171 596.13212714488 611.68560593196 756.20170959092 619.20014070263 577.6591867595 692.33256382522 425.17815927858 423.63574125267 611.6666666923 818.75258741283 844.31428013169 626.4680452199 613.17411297515 786.81403083487 419.8829953507 585.3813225281 528.65258050319 423.24866229936 392.00318982678 422.74351295165 432.86503665501 423.02373554227 1125.5757602261 399.15136823409 346.63674064063 317.83006110783 551.76667995617 337.08646646839 624.1152791837 345.35298583675 418.67718397427 430.4666332261 359.04504952939 429.07908413996 430.35583696359 417.6451380445 486.71916243107 229.50860105776 354.85820680654 311.20120300394 398.68297243946 417.50772624516 463.48178268327 592.85483663269 539.33940124358 440.2009989615 424.085721449 344.12740925118 357.81637511645 524.07763610879 511.91219355161 424.16449681938 677.71519171527 562.31817937018 589.78668164775 899.37856670962 393.64443208946 425.15534074228 249.34584946799 560.47579462528 438.79688523926 252.05110542088 438.51354596563 595.07078618269 234.13292708112 741.26030390035 910.61246965954 589.9542216981 427.20475828992 591.85835257744 570.13357511557 480.5876957999 644.58946054961 586.84737026641 607.97817315145 598.52801132099 736.37754760498 463.34497425011 331.02997625377 557.63749708967 268.51089498776 295.5581001423 693.04517788946 710.08319389237 507.48204753241 700.27241091905 718.56774490944 753.11601385771 892.09873349784 705.81028808471 686.54300096703 616.00255959945 418.18697567812 601.0846205743 574.69121540599 692.61328061452 309.9819716138 624.75650409307 790.13373032004 518.53528912965 494.36529787536 327.51749952033 530.86111448387 364.61191344917 633.41817912977 438.12620667728 747.75833269502 357.43078449292 693.05418812635 347.0675128822 447.85490959534 429.78297552959 1072.103104711 494.34275745935 290.9649303245 567.65712454808 445.86688893961 1011.1753378251 507.75407107283 711.27521549088 568.07989922667 728.15038975856 458.95792604431 726.00736716037 835.36104149091 335.98209831778 421.38995753903 332.54869493429 329.78812598172 322.1769840279 440.04390406762 378.16957322252 404.51467883378 400.30139239339 436.53695202965 593.52580871194 391.5851719462 467.51046953027 449.19994881366 560.17085582933 454.8461661574 446.30027071475 571.65491419387 454.71999434909 829.11800673905 322.74824364994 686.57638346365 486.92042124237 386.40585721393 520.87041447109 567.25481792083 1035.5410236753 485.48105942522 916.46553789945 439.98274504052 656.41146609835 395.96579719509 730.80106704238 468.44953873076 894.81244321536 881.60305036777 559.64506136936 953.49090472281 449.77200450587 381.32446575315 465.15587450103 819.04754832309 698.67646770954 771.57203707674 576.95833692852 726.95064934235 841.6420949253 585.54374620981 427.54991135094 701.93559004838 718.65785350229 489.72115064997 1106.6512061754 367.31697969113 691.98456952578 783.39120068756 386.67667119936 685.09724632709 781.23728405028 1068.3515315567 1123.7013640819 519.10471835574 709.12284953985 1146.4963792338 900.79065070979 1095.0144696376 348.89380765797 1089.9843027829 481.17306418858 890.17498721528 884.78877212621 684.92200503522 860.21453808872 774.3660127047 908.20726248064 689.80312048841 782.51371783846 747.12691536182 795.01888839237 907.3253349617 928.23638326253 789.09097531154 1113.2745389066 860.25318141018 770.76434809515 737.41770744508 697.61416914621 560.69876735255 692.63210178548 993.15557089281 591.48811646817 496.04089868696 710.24573765143 495.7991552891 735.32401464192 721.6929073267 589.68504374493 705.70673013833 383.65900079971 703.70550965783 528.02051827379 698.98459747687 686.86269213121 706.83989004599 467.09529364397 966.0657687739 355.80443941447 346.43952398412 722.86751594483 453.94344934909 662.04160421566 396.85055274669 627.28092638831 674.48177089062 690.27415291176 688.2614642359 734.67997377676 725.28353343099 731.6004200987 465.24003755502 716.88650432858 670.98462773425 538.46550763304 707.12157409638 708.49198050161 742.30288221494 719.22899345507 549.02867508648 718.79669447774 1139.367856253 670.1564906155 970.57705635642 686.98928589847 681.57152949458 447.93624213382 693.27844474205 677.29164766705 725.24698260274 891.97247979046 602.28024685555 712.01654624457 949.10450687923 550.98950664316 698.87747660425 564.61225432952 568.82993352941 560.95138284242 451.94561533017 526.04457881806 422.66233021465 453.5934339118 474.75480845412 594.87622628885 466.38259935241 452.59133273796 278.17106236627 725.63484838137 428.64906101522 709.00539117465 609.77458336846 638.93979182835 566.36788520994 689.36884039357 544.3741931378 558.84739419442 610.0560127639 538.46383641904 608.23673721007 821.25231220549 741.62747363044 561.08582717469 618.68282419073 878.71593265351 659.05041334057 663.66060494275 669.26048955819 900.58781252845 513.50541845526 903.82389324508 539.78039824268 779.40698645069 410.36487915508 752.14093645621 393.92111707125 854.46177635131 466.63339871939 902.9730060735 870.0777255418 396.10879450746 622.86112165393 891.69528365834 896.52909030596 634.13991887052 740.64556880021 702.95546694826 650.01858763437 749.9999626938 475.32356695109 448.16941373581 406.61703013918 842.01478988146 1029.4432934426 766.304534162 737.5747701877 755.26180459794 411.75762515545 751.26941439638 783.08983897973 751.95723044729 330.0938830977 807.56405154982 662.62834153751 707.9214508005 529.08414074206 746.44536978773 926.36514690871 741.11293294599 446.61812721378 718.81994223101 751.96712375802 740.77611244224 686.78710164463 428.51899154499 397.13390987584 851.29094650734 806.82965029778 546.02394175763 876.28820694153 858.75595851246 461.59600199996 814.84343799541 502.97520573347 843.60391632044 814.43134549435 754.49547291295 461.00966850875 794.06204042389 762.98623681738 461.77679383098 421.0243201336 798.3919024487 742.36256025163 459.46713745889 467.69351109373 753.63581995351 734.91652144487 691.35583910894 410.10033911897 215.49132669477 432.42330964939 654.08158159841 581.72005206658 676.31879245437 728.9545001002 760.18113014507 362.23911602323 402.00934799448 485.33920309395 459.93043800428 499.83277439456 462.75828893868 417.76083790864 397.00900820415 393.40136897641 390.50666033488 358.55069164931 506.95858400307 349.18842904196 574.37262014158 406.61700294729 631.29029071688 385.58721174206 426.8551698209 409.82015495164 340.32335419663 312.46167539637 370.5221477111 349.73908251996 384.6149121777 534.13051928009 293.48812806532 258.76451370319 571.66335398394 913.84661404971 774.12653130966 625.66721257282 753.16374181892 537.33188908847 546.26674829331 879.22921196058 718.8436172875 458.9706922889 448.50391536173 425.69809589824 412.01686916189 593.64749439903 501.83568408018 456.69859749103 572.79069408652 701.78734562762 607.18436036287 499.22397998448 669.89994015484 721.32283129275 776.1163284816 664.4957876898 763.3790185412 732.43572602775 683.71947141631 780.79472850448 728.70723425179 700.14755139367 714.50630201353 460.57642187363 452.84567978957 435.80473182559 425.90985900605 731.51349168594 714.19883145295 695.39851456555 736.47601080917 617.75952789926 503.15013267904 472.38089853157 491.3133062231 488.97656206291 471.19320458589 462.24158679582 883.89855210565 861.66554687678 812.24347952742 789.95800694917 902.77181376324 749.96447692553 927.70878939701 831.14901333358 927.8154994181 935.73227329286 711.64217472122 607.23423518105 810.46161500508 575.2018036849 607.40675719582 807.03287973832 591.72123241813 840.97070872685 856.25278702145 722.54695986613 849.03457656928 786.75736536696 922.47330945507 990.87971575314 935.91592360079 908.54679209729 1096.7229188475 1021.8653428905 866.73872308308 840.62913508045 888.72051363476 870.26193354712 896.34241368654 924.