# vtk DataFile Version 3.0
d-2__ created by libgimli-
ASCII
DATASET UNSTRUCTURED_GRID
POINTS 4565 double
-5.002559344975	169.17	0
-5.002559344975	109.17	0
480.00255934497	109.17	0
480.00255934497	157.76	0
0	169.17	0
0.75	169.194	0
1.75	169.226	0
2.5	169.25	0
3.25	169.298	0
4.25	169.362	0
5	169.41	0
5.75	169.455	0
6.75	169.515	0
7.5	169.56	0
8.25	169.578	0
9.25	169.602	0
10	169.62	0
10.75	169.671	0
11.75	169.739	0
12.5	169.79	0
13.25	169.835	0
14.25	169.895	0
15	169.94	0
15.75	169.97	0
16.75	170.01	0
17.5	170.04	0
18.25	170.061	0
19.25	170.089	0
20	170.11	0
20.75	170.131	0
21.75	170.159	0
22.5	170.18	0
23.25	170.216	0
24.25	170.264	0
25	170.3	0
25.75	170.309	0
26.75	170.321	0
27.5	170.33	0
28.25	170.333	0
29.25	170.337	0
30	170.34	0
30.75	170.331	0
31.75	170.319	0
32.5	170.31	0
33.25	170.289	0
34.25	170.261	0
35	170.24	0
35.75	170.201	0
36.75	170.149	0
37.5	170.11	0
38.25	170.059	0
39.25	169.991	0
40	169.94	0
40.75	169.835	0
41.75	169.695	0
42.5	169.59	0
43.25	169.491	0
44.25	169.359	0
45	169.26	0
45.75	169.158	0
46.75	169.022	0
47.5	168.92	0
48.25	168.821	0
49.25	168.689	0
50	168.59	0
50.75	168.467	0
51.75	168.303	0
52.5	168.18	0
53.25	168.063	0
54.25	167.907	0
55	167.79	0
55.75	167.727	0
56.75	167.643	0
57.5	167.58	0
58.25	167.535	0
59.25	167.475	0
60	167.43	0
60.75	167.259	0
61.75	167.031	0
62.5	166.86	0
63.25	166.68	0
64.25	166.44	0
65	166.26	0
65.75	166.05	0
66.75	165.77	0
67.5	165.56	0
68.25	165.368	0
69.25	165.112	0
70	164.92	0
70.75	164.746	0
71.75	164.514	0
72.5	164.34	0
73.25	164.127	0
74.25	163.843	0
75	163.63	0
75.75	163.444	0
76.75	163.196	0
77.5	163.01	0
78.25	162.764	0
79.25	162.436	0
80	162.19	0
80.75	161.914	0
81.75	161.546	0
82.5	161.27	0
83.25	161.009	0
84.25	160.661	0
85	160.4	0
85.75	160.127	0
86.75	159.763	0
87.5	159.49	0
88.25	159.337	0
89.25	159.133	0
90	158.98	0
90.75	158.962	0
91.75	158.938	0
92.5	158.92	0
93.25	158.839	0
94.25	158.731	0
95	158.65	0
95.75	158.875	0
96.75	159.175	0
97.5	159.4	0
98.25	159.445	0
99.25	159.505	0
100	159.55	0
100.75	159.622	0
101.75	159.718	0
102.5	159.79	0
103.25	159.925	0
104.25	160.105	0
105	160.24	0
105.75	160.411	0
106.75	160.639	0
107.5	160.81	0
108.25	161.035	0
109.25	161.335	0
110	161.56	0
110.75	161.77	0
111.75	162.05	0
112.5	162.26	0
113.25	162.377	0
114.25	162.533	0
115	162.65	0
115.75	162.794	0
116.75	162.986	0
117.5	163.13	0
118.25	163.304	0
119.25	163.536	0
120	163.71	0
120.75	163.812	0
121.75	163.948	0
122.5	164.05	0
123.25	164.104	0
124.25	164.176	0
125	164.23	0
125.75	164.362	0
126.75	164.538	0
127.5	164.67	0
128.25	164.826	0
129.25	165.034	0
130	165.19	0
130.75	165.268	0
131.75	165.372	0
132.5	165.45	0
133.25	165.438	0
134.25	165.422	0
135	165.41	0
135.75	165.422	0
136.75	165.438	0
137.5	165.45	0
138.25	165.48	0
139.25	165.52	0
140	165.55	0
140.75	165.565	0
141.75	165.585	0
142.5	165.6	0
143.25	165.606	0
144.25	165.614	0
145	165.62	0
145.75	165.635	0
146.75	165.655	0
147.5	165.67	0
148.25	165.691	0
149.25	165.719	0
150	165.74	0
150.75	165.761	0
151.75	165.789	0
152.5	165.81	0
153.25	165.867	0
154.25	165.943	0
155	166	0
155.75	166.069	0
156.75	166.161	0
157.5	166.23	0
158.25	166.254	0
159.25	166.286	0
160	166.31	0
160.75	166.373	0
161.75	166.457	0
162.5	166.52	0
163.25	166.577	0
164.25	166.653	0
165	166.71	0
165.75	166.716	0
166.75	166.724	0
167.5	166.73	0
168.25	166.793	0
169.25	166.877	0
170	166.94	0
170.75	166.961	0
171.75	166.989	0
172.5	167.01	0
173.25	167.064	0
174.25	167.136	0
175	167.19	0
175.75	167.25	0
176.75	167.33	0
177.5	167.39	0
178.25	167.429	0
179.25	167.481	0
180	167.52	0
180.75	167.571	0
181.75	167.639	0
182.5	167.69	0
183.25	167.708	0
184.25	167.732	0
185	167.75	0
185.75	167.816	0
186.75	167.904	0
187.5	167.97	0
188.25	168.021	0
189.25	168.089	0
190	168.14	0
190.75	168.191	0
191.75	168.259	0
192.5	168.31	0
193.25	168.382	0
194.25	168.478	0
195	168.55	0
195.75	168.559	0
196.75	168.571	0
197.5	168.58	0
198.25	168.583	0
199.25	168.587	0
200	168.59	0
200.75	168.575	0
201.75	168.555	0
202.5	168.54	0
203.25	168.522	0
204.25	168.498	0
205	168.48	0
205.75	168.438	0
206.75	168.382	0
207.5	168.34	0
208.25	168.283	0
209.25	168.207	0
210	168.15	0
210.75	168.072	0
211.75	167.968	0
212.5	167.89	0
213.25	167.803	0
214.25	167.687	0
215	167.6	0
215.75	167.426	0
216.75	167.194	0
217.5	167.02	0
218.25	166.705	0
219.25	166.285	0
220	165.97	0
220.75	165.841	0
221.75	165.669	0
222.5	165.54	0
223.25	165.471	0
224.25	165.379	0
225	165.31	0
225.75	165.16	0
226.75	164.96	0
227.5	164.81	0
228.25	164.567	0
229.25	164.243	0
230	164	0
230.75	163.694	0
231.75	163.286	0
232.5	162.98	0
233.25	162.689	0
234.25	162.301	0
235	162.01	0
235.75	161.701	0
236.75	161.289	0
237.5	160.98	0
238.25	160.74	0
239.25	160.42	0
240	160.18	0
240.75	159.892	0
241.75	159.508	0
242.5	159.22	0
243.25	158.965	0
244.25	158.625	0
245	158.37	0
245.75	158.004	0
246.75	157.516	0
247.5	157.15	0
248.25	156.742	0
249.25	156.198	0
250	155.79	0
250.75	155.382	0
251.75	154.838	0
252.5	154.43	0
253.25	154.1	0
254.25	153.66	0
255	153.33	0
255.75	153.027	0
256.75	152.623	0
257.5	152.32	0
258.25	152.185	0
259.25	152.005	0
260	151.87	0
260.75	151.777	0
261.75	151.653	0
262.5	151.56	0
263.25	151.386	0
264.25	151.154	0
265	150.98	0
265.75	150.464	0
266.75	149.776	0
267.5	149.26	0
268.25	149.692	0
269.25	150.268	0
270	150.7	0
270.75	150.853	0
271.75	151.057	0
272.5	151.21	0
273.25	151.288	0
274.25	151.392	0
275	151.47	0
275.75	151.572	0
276.75	151.708	0
277.5	151.81	0
278.25	151.951	0
279.25	152.139	0
280	152.28	0
280.75	152.409	0
281.75	152.581	0
282.5	152.71	0
283.25	152.827	0
284.25	152.983	0
285	153.1	0
285.75	153.22	0
286.75	153.38	0
287.5	153.5	0
288.25	153.575	0
289.25	153.675	0
290	153.75	0
290.75	153.888	0
291.75	154.072	0
292.5	154.21	0
293.25	154.402	0
294.25	154.658	0
295	154.85	0
295.75	155.018	0
296.75	155.242	0
297.5	155.41	0
298.25	155.557	0
299.25	155.753	0
300	155.9	0
300.75	156.044	0
301.75	156.236	0
302.5	156.38	0
303.25	156.479	0
304.25	156.611	0
305	156.71	0
305.75	156.788	0
306.75	156.892	0
307.5	156.97	0
308.25	157.03	0
309.25	157.11	0
310	157.17	0
310.75	157.224	0
311.75	157.296	0
312.5	157.35	0
313.25	157.371	0
314.25	157.399	0
315	157.42	0
315.75	157.447	0
316.75	157.483	0
317.5	157.51	0
318.25	157.546	0
319.25	157.594	0
320	157.63	0
320.75	157.684	0
321.75	157.756	0
322.5	157.81	0
323.25	157.882	0
324.25	157.978	0
325	158.05	0
325.75	158.038	0
326.75	158.022	0
327.5	158.01	0
328.25	157.986	0
329.25	157.954	0
330	157.93	0
330.75	157.93	0
331.75	157.93	0
332.5	157.93	0
333.25	157.918	0
334.25	157.902	0
335	157.89	0
335.75	157.824	0
336.75	157.736	0
337.5	157.67	0
338.25	157.697	0
339.25	157.733	0
340	157.76	0
340.75	157.751	0
341.75	157.739	0
342.5	157.73	0
343.25	157.709	0
344.25	157.681	0
345	157.66	0
345.75	157.678	0
346.75	157.702	0
347.5	157.72	0
348.25	157.822	0
349.25	157.958	0
350	158.06	0
350.75	158.111	0
351.75	158.179	0
352.5	158.23	0
353.25	158.29	0
354.25	158.37	0
355	158.43	0
355.75	158.46	0
356.75	158.5	0
357.5	158.53	0
358.25	158.563	0
359.25	158.607	0
360	158.64	0
360.75	158.67	0
361.75	158.71	0
362.5	158.74	0
363.25	158.806	0
364.25	158.894	0
365	158.96	0
365.75	159.008	0
366.75	159.072	0
367.5	159.12	0
368.25	159.18	0
369.25	159.26	0
370	159.32	0
370.75	159.362	0
371.75	159.418	0
372.5	159.46	0
373.25	159.526	0
374.25	159.614	0
375	159.68	0
375.75	159.746	0
376.75	159.834	0
377.5	159.9	0
378.25	159.876	0
379.25	159.844	0
380	159.82	0
380.75	159.871	0
381.75	159.939	0
382.5	159.99	0
383.25	160.2	0
384.25	160.48	0
385	160.69	0
385.75	160.825	0
386.75	161.005	0
387.5	161.14	0
388.25	161.251	0
389.25	161.399	0
390	161.51	0
390.75	161.612	0
391.75	161.748	0
392.5	161.85	0
393.25	161.952	0
394.25	162.088	0
395	162.19	0
395.75	162.286	0
396.75	162.414	0
397.5	162.51	0
398.25	162.597	0
399.25	162.713	0
400	162.8	0
400.75	162.869	0
401.75	162.961	0
402.5	163.03	0
403.25	163.084	0
404.25	163.156	0
405	163.21	0
405.75	163.258	0
406.75	163.322	0
407.5	163.37	0
408.25	163.406	0
409.25	163.454	0
410	163.49	0
410.75	163.532	0
411.75	163.588	0
412.5	163.63	0
413.25	163.627	0
414.25	163.623	0
415	163.62	0
415.75	163.608	0
416.75	163.592	0
417.5	163.58	0
418.25	163.553	0
419.25	163.517	0
420	163.49	0
420.75	163.487	0
421.75	163.483	0
422.5	163.48	0
423.25	163.477	0
424.25	163.473	0
425	163.47	0
425.75	163.464	0
426.75	163.456	0
427.5	163.45	0
428.25	163.411	0
429.25	163.359	0
430	163.32	0
430.75	163.266	0
431.75	163.194	0
432.5	163.14	0
433.25	163.065	0
434.25	162.965	0
435	162.89	0
435.75	162.8	0
436.75	162.68	0
437.5	162.59	0
438.25	162.539	0
439.25	162.471	0
440	162.42	0
440.75	162.336	0
441.75	162.224	0
442.5	162.14	0
443.25	162.044	0
444.25	161.916	0
445	161.82	0
445.75	161.745	0
446.75	161.645	0
447.5	161.57	0
448.25	161.477	0
449.25	161.353	0
450	161.26	0
450.75	161.182	0
451.75	161.078	0
452.5	161	0
453.25	160.922	0
454.25	160.818	0
455	160.74	0
455.75	160.65	0
456.75	160.53	0
457.5	160.44	0
458.25	160.332	0
459.25	160.188	0
460	160.08	0
460.75	159.987	0
461.75	159.863	0
462.5	159.77	0
463.25	159.677	0
464.25	159.553	0
465	159.46	0
465.75	159.328	0
466.75	159.152	0
467.5	159.02	0
468.25	158.888	0
469.25	158.712	0
470	158.58	0
470.75	158.472	0
471.75	158.328	0
472.5	158.22	0
473.25	158.082	0
474.25	157.898	0
475	157.76	0
237.5	109.17	0
358.75127967249	109.17	0
116.24872032751	109.17	0
90.312375960936	157.97601694633	0
84.485844780174	158.52588674796	0
98.250899065248	158.08712427553	0
108.03567316558	159.73540778141	0
61.162442371763	165.1770846707	0
50.932874284418	166.49363944594	0
113.09767524315	161.38918421654	0
120.67720811366	162.77165288469	0
128.09130759971	163.84980379287	0
132.85804594137	164.4891959041	0
229.23261417476	162.88848168417	0
163.41027428433	164.76955523293	0
142.12039281328	164.6498590196	0
154.89752249491	164.84006869028	0
219.16631533053	164.96817142431	0
-2.501279672488	169.17	0
42.678549751996	168.77734872545	0
10.434639211708	168.65206904545	0
25.391148603168	169.25779137246	0
80.911617495437	161.02649395197	0
186.21757608792	165.93901742803	0
190.51300146402	167.20883283805	0
204.59558230637	167.64388675084	0
[...]
CELL_DATA 8393
SCALARS P-wave_Velocity double 1
LOOKUP_TABLE default
192.45299706521 291.17383540221 536.86590777666 312.03666248268 693.37405306523 318.81691341082 825.14023148611 197.35358682385 374.03485062234 190.47765683266 1017.196266775 243.7527306131 312.11876505837 301.84592191532 294.18706637762 207.7422932597 420.75051025048 349.95973319276 273.39055411583 334.37782018138 382.45423969364 357.81726858755 282.67824406939 338.78424987739 340.11868627143 275.4234801662 266.47374394756 306.51693198317 306.73777925457 505.00025528955 274.25486101485 439.28191574133 174.73785430644 332.37069646991 250.39392318173 307.11181912097 293.47604830393 276.43564685123 304.80938627489 308.52591210985 503.56124459732 300.29986727175 275.11879313172 358.42807521821 297.62356442574 221.64110164368 274.1837711391 539.34616570203 284.94094769865 225.27827064332 818.1958149652 226.30054302452 224.2475525147 402.2356684885 299.46555902982 454.37482228692 313.2947546169 306.28889158471 578.02590417345 253.71479371314 438.53921700854 221.50680269532 371.89840934036 1167.2959692706 369.36177198885 408.37899652656 320.5775964622 392.22216001042 550.49744306136 413.45262338982 917.93913571272 562.39755660847 211.64448792512 505.99887162452 308.13807179682 284.13002680065 355.92825175734 314.79345952349 237.95981589668 385.4776418094 388.52428984336 555.42001297107 633.96772367556 348.78762146888 615.13141155188 259.38136117979 660.50525219543 436.86481350568 309.92126496726 326.01095769175 769.10493806288 345.77043909647 220.98870273576 545.18680757018 284.44593864495 915.3916272576 837.61255574386 298.80662953032 264.26916518937 370.69981685211 246.07734106185 308.5312926703 264.37071382394 336.30225800315 257.47715999021 344.02167130629 346.52644832252 418.09945027375 527.41255497656 655.15228511894 332.31136721381 332.36765082677 392.77417742143 348.72781636825 331.75417588803 402.17539324965 634.0641454271 731.80408672563 534.54720059385 554.44969119822 489.08304979092 324.98757043534 326.72938177349 421.07009239921 245.54347294765 287.21312173516 366.07300218367 307.46641540266 305.58053726545 323.49811619725 320.16581555278 368.85334275622 323.44179937373 355.69902702855 306.63941248194 338.07809204674 317.46278509352 648.44292556507 293.48623118368 225.699793466 782.67705123008 259.76116992454 232.49971694673 287.04090255331 300.63130741445 263.63649427664 463.51685696854 262.95227663668 178.81353289405 258.24260816581 261.41697871345 573.63309459576 255.20464058598 634.92256553062 283.94080667333 518.57871587509 293.4902228352 172.12319218066 481.88333173767 210.38333835716 161.1042912367 342.00761028726 220.9352118388 190.41274148343 532.16832242767 210.0018581891 253.09086187029 346.72546453322 235.94619829613 171.70610283548 274.08082051611 210.94978981653 262.16008620914 504.14237724378 250.78915412236 318.02754580824 359.08984657578 428.20666738989 864.86993942638 337.90785958698 233.31068394105 471.54986989078 309.92599651288 324.21894691764 369.40183893168 382.50374078234 358.37500593912 315.17526725874 278.07878622826 310.21380576057 684.80789240885 282.1466181883 1127.4581712439 273.6942268546 286.63940629543 360.37004497274 426.81990866546 382.25006725842 374.03140898923 372.98275515978 524.85184800054 211.45592198228 500.05043883838 297.89852364961 396.27403379167 311.68822711547 586.92795272898 279.65147708911 237.09543095757 216.47461248363 567.94462703396 277.81471315745 781.10696606819 274.70810021586 281.99768192478 639.25652924549 344.00683365799 270.63325727472 275.99011509952 279.16159740503 685.8742997288 197.99701118009 270.16103113007 593.73831242558 287.17926809331 305.2130920431 299.76662130471 277.24950145678 208.87774692583 303.66139781842 261.58387159005 514.83787362529 264.24745629466 313.37961317038 950.23949189238 351.71646235476 314.46277350361 380.2254350811 311.03770694253 547.82504497992 268.17006682185 216.70573395897 259.68837321127 242.5082904344 158.30562971865 383.79402634125 203.80485358769 359.51451229055 308.02885514818 590.04301437762 430.8042724756 216.53730462574 489.71564916953 179.50902735597 729.88120307467 491.63491037856 383.36517377265 395.22188299389 286.75730384174 266.54224311695 948.43839101587 418.53757163805 260.62375299844 361.43430303625 390.2996477841 207.24332682619 255.76590026942 360.47395882796 248.29773956798 324.40511512545 657.3826556064 286.93714551219 263.37891839394 1070.114939699 405.67798811631 444.24016202158 918.87181389217 416.23638422127 176.07702766426 479.31969817934 362.5325850335 233.68045704938 259.29006810234 331.23772034426 383.43537461545 540.153379321 444.28061675972 348.73544786992 357.01773912047 369.99822341865 715.16694281394 351.02100324452 343.11292289626 364.50921130264 442.61002026645 880.97361355651 368.23625530045 273.78133011138 404.16893265226 214.87422850452 903.34289813874 357.90533537111 375.73285562583 365.93646749466 342.64892251263 451.14382210637 522.48440981576 264.76357955845 309.83199638469 308.1915091374 369.47830854867 527.26511161721 285.08141369983 460.00071247962 454.09997372251 531.62423216385 1520.0395486114 365.04192598947 619.44442724242 247.28469556007 335.94187378279 290.63959856464 489.04468048613 311.1896994452 621.5232279442 293.51166301862 266.09804501753 321.48743572593 587.62523645485 379.12881144722 241.63870122216 312.5314489007 358.67788331249 356.33360602691 306.3119427294 315.14700738993 469.03253048672 310.03872545616 409.889020672 323.85109967776 375.83853018683 304.15154263764 333.84272936138 307.76805370703 244.38044259528 235.56865801423 315.52423095465 358.11443685912 269.18023859034 408.12791932062 567.25914497365 400.47769590703 656.64323660812 250.22680456897 375.16762882226 265.420913149 325.75852414813 293.44508339138 258.61763001818 486.00073021072 295.48012331361 303.75829552228 334.21319148621 326.79850198622 377.21722369271 273.05595893205 345.57581330122 315.94097911767 343.33307686909 370.2048767494 1599.0138300055 340.30080068755 189.59309454937 350.30563414698 348.9705179644 348.74810617438 364.08127594177 500.06395248508 498.88965176612 481.65502685343 1071.8068021074 734.37123283132 450.04422355839 240.21162524946 355.8806556164 443.33897057384 344.39831649665 707.57617646119 186.71383175601 332.28131646122 493.94347480507 363.15571007353 376.85668644755 412.22806899337 490.71305086366 329.33590721082 379.4571585737 319.6420066417 662.0279131258 305.57797605527 617.63204216453 380.95851494322 409.2289267402 421.60855997253 218.92298836495 455.61194757723 378.48740129548 393.08382167003 488.32463720699 183.29696862053 615.09943768212 358.6753389394 754.61774884003 343.83454728733 362.08714698826 401.76593238005 670.76405296137 259.64573506194 390.7893476797 509.43878239445 490.92067141525 408.83896140465 275.01840020028 720.1705678349 533.76026634184 595.75476565223 477.6824127989 301.9936622232 563.65066702899 453.53528211337 331.12920259835 194.15012205054 493.48702060688 334.11097717328 669.71750850413 319.28715879723 640.42408552448 562.29214542489 606.43972929607 362.88507208085 255.97662660022 190.71185915813 217.4689830104 255.97880746911 255.55234953088 272.44347423557 840.8103669319 194.88851369809 549.42357578719 374.30434079606 233.76351602389 350.9029145617 554.99821585236 895.15801098343 359.5167989351 359.22458291424 511.29627253554 570.09067865475 391.76221516796 337.43181611398 239.84366758758 331.56886372012 325.40994613168 523.6063029481 1188.5956815416 349.25032347158 569.42115002205 353.00447056637 197.48609590793 329.41738550856 459.68604210978 386.00297385401 425.7855978617 436.83341613289 417.59458555904 392.5599366661 329.45140428262 699.26821373462 294.40296614637 267.53905049513 373.1291293735 300.07005520336 471.28589783932 284.96946691107 263.22614802436 172.27331092069 285.14390116337 476.07587898716 481.16813077287 403.68048478643 388.95082967432 179.17005598667 331.8868758711 321.31477641247 330.43026337803 335.54954933159 317.83112956999 208.78763527915 366.22759771251 227.02284152964 221.47742795636 277.3745364445 484.27804424248 177.44065341951 404.47452439293 192.33149585502 305.06266356716 356.65358029078 274.06359420758 526.89102269958 284.23466588215 330.85455936406 221.03749316203 358.17820299361 291.645938826 319.31989765227 310.75080153906 411.72954888866 548.90515817341 382.10226679657 416.35719113473 407.88799792874 533.55280817604 365.81881636521 405.924608781 341.29763465188 310.26165353039 306.88513569478 184.37955830746 501.66909995778 371.3011521295 264.19000098211 352.1652807578 290.01135929182 392.66803806061 296.39607534722 699.76139056647 355.70980885415 228.42803211661 252.57446768198 198.75640662139 504.6082883997 305.49495896472 248.9917875949 295.47902186663 319.70725414689 298.81970651532 338.07868881786 467.7840713971 317.05229538824 527.38703761219 302.06123637448 401.20824091355 291.42698287994 349.77542250442 204.80629103305 469.82516018915 716.67889297397 487.5227298087 237.82212849618 266.79912047952 523.08903349079 568.27431840839 197.89935453154 265.15794826918 360.23938967099 276.63693587087 641.93749791028 225.16959729036 559.69439278805 685.91981010466 309.01379803266 455.32399456908 778.05035624509 258.54540009372 846.78842450043 577.35387928714 771.83151215889 577.20543383836 271.23449704025 312.18844674636 307.18646255254 152.96533264663 306.94305649234 256.19242070574 359.06264052382 861.46225702016 267.59413586897 390.58071529982 828.74817923982 409.17180342364 493.56846239582 305.35336888056 482.97113029645 366.50275616809 897.30989441048 357.61078806973 582.0145408423 877.20240425964 443.69687859133 384.74687880157 876.13697212786 498.98608710867 413.12398210267 265.16792578655 581.97381468304 277.90907702718 175.1843842245 514.22824156735 246.38916089786 141.87884499671 370.85218219767 359.85188928465 201.7904452904 410.88092409743 318.06695335577 366.29601339981 215.4982459285 360.17225500837 271.65709853963 406.69878990138 395.46304214002 628.80826822354 440.28086613989 267.46191446058 458.44397670866 600.52855488992 550.04297761286 478.0822867714 212.83634034188 353.48601836195 325.94708531072 692.92026904113 242.47724253881 620.52740437127 357.94996078253 442.6491925507 507.59543851502 617.43736107552 464.04502859628 224.66450697936 169.13847577359 752.19445142473 492.66927981456 253.45368193841 489.7249721507 314.63279344729 520.20334721865 935.19333310783 246.8321549804 510.98392928172 536.58886862031 832.2343604862 285.38812165104 286.88407717839 210.73007718697 542.72332353253 353.54535840861 385.78373927605 778.52038154238 357.78164164622 765.85281425486 336.99032774578 734.83383875876 279.09291851526 496.57377167399 727.93345890108 715.62181035181 693.94509516943 427.18112216735 208.36188808577 667.655096652 692.96269449162 309.37235883854 275.71306827096 758.50508495247 237.90049471699 226.41151121906 850.17343090766 843.49783991819 351.25847941486 461.36475168843 430.98751449815 368.99442653388 312.78574120884 315.36340909764 316.79685269504 801.98893174221 613.45304516499 513.93925300985 295.584193445 498.39357754977 255.31105070944 392.14480067339 235.9980995826 300.7450231533 311.91911666126 457.06152505143 490.17748727364 341.19297097515 407.48955081276 241.49005370985 250.81267947977 253.90732149063 302.8024256702 315.25353473619 284.71198475464 175.11323776306 295.95546294 325.052206809 341.44462871067 471.25687215296 331.9539821574 514.32402674809 366.87672901625 296.72590954323 419.67088784112 265.35350255725 308.15306602572 465.73574470713 258.12551063783 293.75295307757 385.12331636635 246.86555934728 295.49298039503 348.51972670754 285.12707852111 1000.3298946767 300.59477876797 518.58513339367 322.86220314402 217.0803156627 345.27480313845 227.87955124906 248.4122496568 510.78511065574 274.45261601002 269.70560939919 543.78164001097 283.81260216466 300.9851405187 221.3475646829 275.72157018804 214.12669848898 276.19993633047 203.56344614544 277.87338701352 398.45817051442 324.69525662319 325.66173226907 452.26053120118 361.12322826328 657.64624014504 730.41018806178 371.84077862784 378.47821295895 445.61106849584 229.11818512385 371.84516059593 478.74912754343 375.85291352227 324.97711793078 322.77531058972 235.49249153376 340.62787393269 361.67163200806 267.03093243272 375.38896658168 772.35280323157 326.65179468051 499.0605798167 253.2446144363 347.26195879878 1109.9226045314 279.25329337101 290.22064885149 292.21334278849 318.92191764052 928.74802285302 271.68304442701 530.68450372807 282.38329756218 291.93522118574 288.10905684145 327.67897733396 366.55080587048 410.0612136888 240.06513773474 813.27371232769 314.6636181093 323.15938124248 350.64350821677 266.14119830845 190.67434858557 284.74170586009 421.29201224546 332.93876627279 229.2793820861 319.82098185433 265.89301613934 353.23721192451 362.26919235851 348.18797786591 352.67547422216 341.0532435377 727.83831415725 414.02127948598 201.28580036593 236.91718412982 344.34796450814 326.2529590609 583.38797629781 527.84996457329 353.23686539313 472.42245785689 448.57069103476 551.45685480507 504.82824939383 340.42492194433 319.78178929264 264.76911342399 317.38914531603 322.46262500118 403.86697738033 509.46112619729 170.69795135823 353.50649606566 183.7989244565 173.76374476843 413.17515453703 585.72523175456 345.70058166426 293.70899451192 206.85687075001 451.46679835368 422.66543247376 879.75886243254 507.50158972952 474.29276177579 446.80124678868 521.42452429018 284.32753534191 533.2214913259 454.70719557087 182.81936768326 393.77349798997 271.68425576144 349.39589293989 363.53872924565 1827.4817382705 280.11555620999 472.49459163777 166.28665423511 558.73916364849 807.01401048664 325.93679559941 870.79279063 345.12104354205 327.11320052274 562.43600663139 579.10990148173 367.57164617328 455.05013207917 261.92175228229 247.27820013098 592.95412815029 515.51134058057 260.13493999813 258.91271230556 389.15690728136 516.737701736 371.98743509733 303.03135375718 337.02831505578 262.46050828521 414.24725997088 348.84853941191 316.1765857473 323.02181174459 230.75136866921 418.27402097267 194.89850924064 262.38818602286 213.24779653561 337.59637511352 244.677209399 339.99990513021 171.91176558445 588.38099224047 356.13829964158 275.37263072884 804.65523764779 355.19601250937 205.72608622721 175.04849589192 264.4770171337 284.69615392527 257.70093659386 515.38985823045 227.4215749081 215.1285454853 277.43818702506 279.59324774506 264.09072719678 231.59425293005 500.66069491145 277.89978736068 273.81805064052 293.28541603709 307.95438373327 563.39016140794 281.74670843435 273.39899008196 273.62915739919 653.11145975099 283.71117756776 269.22098320992 269.68929233659 263.6850267424 353.84913628534 230.08735479703 353.80754646487 244.98602455207 753.16590173197 188.61570566426 864.23742228134 248.80110344649 264.28580131282 219.1100118244 640.05970479462 554.49464152206 789.91255271867 408.08114393226 256.78748754179 335.61542011266 364.80181487541 356.47412051834 359.83246246097 235.17087099082 371.41018267275 253.35252037796 250.49787401408 287.55455348382 664.77889122144 343.19934961022 268.81288248981 527.86159347965 466.99648846613 242.40789384099 411.10449119715 203.38938750636 256.4296066524 413.17797157172 554.07307401972 424.8343526072 171.71576448895 762.5994071365 1151.9051515948 324.37682379597 518.19108305765 492.21376359132 244.14418021483 712.41932498683 190.00098935784 659.27902653608 336.18976571153 315.07948647347 747.97964515632 363.6988424667 184.28652810948 436.72490674134 185.94393228683 281.59808336584 226.05343006841 211.22191317569 206.17239266371 337.38784105554 436.47123822139 199.2314598403 254.33833839246 244.28654219098 268.76448578207 237.42419308351 416.5805414567 274.06649768065 252.7259531857 285.28755846081 206.46726325299 271.84024227698 338.29483315148 258.18971324141 383.27085589133 380.02098866705 737.05289662101 246.23613021142 378.73971635573 265.92656183665 499.75823499832 337.8510042156 470.14554356068 590.58284310672 232.19306128767 366.91439934703 343.22636115659 493.58454874419 229.43039284664 359.221754218 297.83059861884 219.26437349888 228.66351870499 225.29725798961 194.87002510196 321.14395652286 226.20620466176 245.38386964903 485.40063391446 696.14332525996 216.87596508714 170.29092728652 207.94151739297 203.93962586782 223.16247426783 923.83287743733 246.46056433712 317.43921102823 254.75400066465 262.48138180647 396.92760742887 370.96353453178 237.19608173826 245.56158306491 278.97352579089 361.81565477908 265.25747013545 960.37804703776 363.86776143259 938.4365651731 327.73189094303 612.36649911727 330.45842376992 393.3161805536 335.24790673158 372.68372549601 354.56890985577 209.7502431728 301.63603198698 370.98386088869 251.31800515527 220.03790876386 816.08248415253 410.05196974271 302.50422727085 342.11446773526 301.98558481292 419.24013206087 265.00626335644 387.56870456888 316.32270876433 363.11491868194 302.23948282682 234.14176391191 374.21479432179 854.95663813734 243.28250306228 234.22222949119 285.00057464734 1402.9279155946 223.04137330062 233.54550592412 418.96500970001 605.41460195246 829.40731729805 535.47812701603 257.6197514372 317.32011783226 935.09303803538 505.42061046697 230.71789665981 578.69655834973 230.94445487252 232.51534950156 473.54155733038 384.09667552822 535.97908560055 458.77523806326 332.30796410418 224.52957903003 214.58919030019 401.7321681975 212.52095206705 152.83457918061 233.32239120771 314.89888983537 609.40533092553 357.56825555982 207.4838952362 475.49768867249 317.24163438014 436.02075655139 220.50920071624 223.8586775854 298.86609743769 344.08773377868 283.45169869884 996.0344557576 261.67614491448 314.78710098126 223.21886179859 221.83698986757 403.00010245643 355.30522956515 238.06928993675 376.36000139695 264.89567412374 234.09215918089 483.40570815674 214.81972786438 234.4729013833 215.12010557573 376.72343398115 359.50861668922 209.16677312273 322.13077579788 1258.2417996441 678.8835661076 220.26190862111 616.66363291874 203.07351955057 223.92564701553 351.57934578658 362.15758083135 415.02182547705 451.84029896784 200.88743439553 212.44116713357 515.32596554173 346.64039354155 591.23915106508 219.0545666459 975.37567231727 198.84905995428 230.05255271782 209.76447280787 299.57153935631 506.10991351582 439.9584028545 764.51875667047 326.56309526836 504.83391929875 461.002951173 552.97807923806 283.48974735644 313.93083136558 621.21644337974 338.25597568763 420.28678660868 193.75770499291 310.55209558262 504.07819142687 472.63597744121 236.31388421807 355.46667438478 362.83344907664 223.16904801825 413.37229787956 682.43153145874 740.47104196356 616.05268946525 300.65808943031 431.60801889349 489.97576726961 597.64355088018 353.8489591632 355.01286587795 219.44542105501 464.26306714796 635.14595175034 637.4539031597 555.25754262166 463.27812074299 303.7309160555 407.28216279963 967.06428653805 598.60050775401 704.24552053756 234.70075735717 238.4529169852 418.89375801639 252.16276725318 234.2480962866 474.00426967381 327.9104955608 324.1784205872 298.26743102578 343.88653203424 262.74366432685 254.05465137332 219.26343038416 337.5934653494 183.13333403958 225.77610445295 214.07064970833 336.40733715466 360.28024691074 1120.5751378637 840.10599822891 253.29395796707 384.96010280702 1479.612153841 234.1722424754 384.99370929381 258.59009494543 457.31428118511 794.37480109728 514.24261217923 396.22744541965 511.26781811782 320.06733795087 361.42561404727 269.36528976889 207.54043400433 605.62962709444 550.1997778087 606.3721359728 354.22917483 392.5044444479 512.14314729558 390.18347235163 991.28427791755 481.65049750549 373.13430265176 261.21030958527 292.65041969695 360.23367999756 534.97841368523 352.24469267814 231.6034322637 253.71798835769 279.65989863131 340.39097681405 835.6029261238 373.76760129477 735.21131413834 943.5840581485 299.63076713096 353.87504931409 1585.4421656668 461.34932251065 348.72517611389 655.98693734885 393.71253428878 307.49298403332 421.3933486558 453.03620948268 450.02332099752 374.55315256714 4